LAMMPS data file Created by LigParGen - (Written by Leela S. Dodda)

      55 atoms
      58 bonds
      96 angles
     135 dihedrals
      30 impropers
 
      55 atom types
      58 bond types
      96 angle types
     135 dihedral types
      30 improper types
 
   -8.702510    41.297490 xlo xhi
   -4.161790    45.838210 ylo yhi
   -6.204230    43.795770 zlo zhi

Masses

       1     12.011  
       2     12.011  
       3     12.011  
       4     12.011  
       5     14.007  
       6     12.011  
       7     14.007  
       8     12.011  
       9     12.011  
      10     12.011  
      11     14.007  
      12     12.011  
      13     15.999  
      14     15.999  
      15     12.011  
      16     12.011  
      17     12.011  
      18     14.007  
      19     12.011  
      20     12.011  
      21     15.999  
      22     14.007  
      23      1.008  
      24     12.011  
      25     15.999  
      26     14.007  
      27     12.011  
      28     14.007  
      29     12.011  
      30     12.011  
      31     32.060  
      32     12.011  
      33     14.007  
      34     12.011  
      35     15.999  
      36     15.999  
      37      1.008  
      38      1.008  
      39      1.008  
      40      1.008  
      41      1.008  
      42      1.008  
      43      1.008  
      44      1.008  
      45      1.008  
      46      1.008  
      47      1.008  
      48      1.008  
      49      1.008  
      50      1.008  
      51      1.008  
      52      1.008  
      53      1.008  
      54      1.008  
      55      1.008  

Pair Coeffs 

       1      0.066  3.5000000 
       2      0.070  3.5500000 
       3      0.070  3.5500000 
       4      0.066  3.5000000 
       5      0.170  3.2500000 
       6      0.070  3.5500000 
       7      0.170  3.2500000 
       8      0.070  3.5500000 
       9      0.070  3.5500000 
      10      0.066  3.5000000 
      11      0.170  3.3000000 
      12      0.070  3.5500000 
      13      0.210  2.9600000 
      14      0.170  3.1200000 
      15      0.070  3.5500000 
      16      0.080  3.5000000 
      17      0.080  3.5000000 
      18      0.170  3.2500000 
      19      0.080  3.5000000 
      20      0.070  3.5500000 
      21      0.210  2.9600000 
      22      0.170  3.2500000 
      23      0.000  0.0000000 
      24      0.070  3.5500000 
      25      0.210  2.9600000 
      26      0.170  3.2500000 
      27      0.070  3.5500000 
      28      0.170  3.2500000 
      29      0.066  3.5000000 
      30      0.070  3.5500000 
      31      0.355  3.6000000 
      32      0.066  3.5000000 
      33      0.170  3.3000000 
      34      0.070  3.5500000 
      35      0.210  2.9600000 
      36      0.170  3.1200000 
      37      0.030  2.5000000 
      38      0.030  2.5000000 
      39      0.030  2.5000000 
      40      0.030  2.5000000 
      41      0.030  2.5000000 
      42      0.030  2.4200000 
      43      0.030  2.4200000 
      44      0.030  2.5000000 
      45      0.000  0.0000000 
      46      0.000  0.0000000 
      47      0.000  0.0000000 
      48      0.030  2.4200000 
      49      0.030  2.5000000 
      50      0.030  2.5000000 
      51      0.030  2.5000000 
      52      0.030  2.5000000 
      53      0.000  0.0000000 
      54      0.000  0.0000000 
      55      0.000  0.0000000 

Bond Coeffs 

       1   317.0000     1.5100 
       2   469.0000     1.4000 
       3   317.0000     1.5100 
       4   337.0000     1.4750 
       5   477.0000     1.3430 
       6   488.0000     1.3350 
       7   410.0000     1.3940 
       8   427.0000     1.3810 
       9   317.0000     1.5040 
      10   382.0000     1.4480 
      11   317.0000     1.5220 
      12   570.0000     1.2290 
      13   450.0000     1.3640 
      14   469.0000     1.4000 
      15   469.0000     1.4040 
      16   520.0000     1.3700 
      17   461.0000     1.3540 
      18   461.0000     1.3540 
      19   447.0000     1.4190 
      20   570.0000     1.2290 
      21   418.0000     1.3880 
      22   434.0000     1.0100 
      23   418.0000     1.3880 
      24   570.0000     1.2290 
      25   457.0000     1.3580 
      26   469.0000     1.4040 
      27   436.0000     1.3740 
      28   337.0000     1.4750 
      29   469.0000     1.4000 
      30   250.0000     1.7600 
      31   222.0000     1.8100 
      32   382.0000     1.4480 
      33   317.0000     1.5220 
      34   570.0000     1.2290 
      35   450.0000     1.3640 
      36   340.0000     1.0900 
      37   340.0000     1.0900 
      38   340.0000     1.0900 
      39   340.0000     1.0900 
      40   340.0000     1.0900 
      41   367.0000     1.0800 
      42   367.0000     1.0800 
      43   340.0000     1.0900 
      44   434.0000     1.0100 
      45   434.0000     1.0100 
      46   553.0000     0.9450 
      47   367.0000     1.0800 
      48   340.0000     1.0900 
      49   340.0000     1.0900 
      50   340.0000     1.0900 
      51   340.0000     1.0900 
      52   434.0000     1.0100 
      53   434.0000     1.0100 
      54   553.0000     0.9450 
      55   520.0000     1.3700 
      56   469.0000     1.4040 
      57   502.0000     1.3240 
      58   427.0000     1.3810 

Angle Coeffs 

       1     70.000    120.000
       2     70.000    120.000
       3     80.000    111.200
       4     63.000    112.400
       5     70.000    120.000
       6     70.000    110.000
       7     63.000    112.400
       8     70.000    121.600
       9     80.000    111.200
      10     63.000    112.000
      11     80.000    120.400
      12     70.000    108.000
      13     63.000    120.000
      14     63.000    120.000
      15     85.000    117.300
      16     70.000    127.700
      17     70.000    112.200
      18     70.000    130.000
      19     80.000    128.800
      20     70.000    111.300
      21     35.000    116.800
      22     70.000    126.400
      23     80.000    120.600
      24     70.000    118.600
      25     70.000    132.400
      26     70.000    108.700
      27     70.000    125.800
      28     70.000    120.000
      29     85.000    119.400
      30     62.000    104.200
      31     50.000    114.700
      32     51.650    110.580
      33     80.000    120.400
      34     70.000    108.000
      35     35.000    109.500
      36     35.000    109.500
      37     35.000    109.500
      38     35.000    109.500
      39     35.000    109.500
      40     35.000    120.000
      41     35.000    120.000
      42     35.000    109.500
      43     35.000    109.500
      44     35.000    109.500
      45     35.000    113.000
      46     35.000    120.000
      47     35.000    109.500
      48     35.000    109.500
      49     35.000    109.500
      50     35.000    109.500
      51     35.000    109.500
      52     35.000    109.500
      53     35.000    113.000
      54     85.000    117.300
      55     80.000    121.000
      56     80.000    111.200
      57     70.000    123.300
      58     43.600    106.400
      59     80.000    122.500
      60     80.000    111.200
      61     85.000    120.000
      62     35.000    116.800
      63     70.000    109.800
      64     35.000    128.200
      65     70.000    120.500
      66     70.000    132.400
      67     33.000    107.800
      68     70.000    125.200
      69     80.000    120.600
      70     35.000    109.500
      71     43.600    106.400
      72     35.000    109.500
      73     70.000    106.200
      74     70.000    117.300
      75     63.000    112.400
      76     33.000    107.800
      77     33.000    107.800
      78     35.000    109.500
      79     63.000    120.000
      80     33.000    107.800
      81     35.000    109.500
      82     63.000    120.000
      83     33.000    107.800
      84     70.000    130.700
      85     70.000    111.000
      86     33.000    107.800
      87     35.000    109.500
      88     35.000    109.500
      89     80.000    121.000
      90     35.000    120.000
      91     70.000    108.700
      92     85.000    119.400
      93     33.000    107.800
      94     35.000    120.000
      95     70.000    106.300
      96     70.000    120.000

Dihedral Coeffs  

       1      0.000      7.250      0.000      0.000 
       2      0.000      0.000      0.000      0.000 
       3      0.000      0.000      0.000      0.000 
       4      0.000      2.100      0.000      0.000 
       5      0.000     10.000      0.000      0.000 
       6      0.000     10.750      0.000      0.000 
       7      0.000      0.000      0.000      0.000 
       8      0.000      7.250      0.000      0.000 
       9      0.000      7.000      0.000      0.000 
      10      0.000      7.250      0.000      0.000 
      11      0.000      7.250      0.000      0.000 
      12      0.000      7.250      0.000      0.000 
      13      0.000      7.000      0.000      0.000 
      14      0.000      4.900      0.000      0.000 
      15      0.000      4.900      0.000      0.000 
      16      0.000      0.600      0.000      0.000 
      17      0.000      0.000      0.647      0.000 
      18      0.000      0.000      0.000      0.000 
      19      0.000      0.000      0.000      0.000 
      20     -0.190     -0.417      0.418      0.000 
      21      1.500      5.500      0.000      0.000 
      22      0.000      0.000      0.000      0.000 
      23      0.000      2.100      0.000      0.000 
      24      1.500      5.500      0.000      0.000 
      25      0.000      5.000      0.000      0.000 
      26      0.000      0.000      0.000      0.000 
      27      0.000      5.000      0.000      0.000 
      28      0.000      0.600      0.000      0.000 
      29      0.000      0.000      0.000      0.000 
      30      0.000      7.250      0.000      0.000 
      31      0.000      5.500      0.000      0.000 
      32      0.000      0.000      0.000      0.000 
      33      0.000      7.000      0.000      0.000 
      34      0.000      7.250      0.000      0.000 
      35      0.000      6.089      0.000      0.000 
      36      0.000      2.170      0.000      0.000 
      37      0.000      0.000      0.400      0.000 
      38      0.000      7.250      0.000      0.000 
      39      0.000      7.250      0.000      0.000 
      40      0.000      0.000      0.000      0.000 
      41      0.000      0.000      0.000      0.000 
      42      0.000     14.000      0.000      0.000 
      43      0.000      7.000      0.000      0.000 
      44      0.000      0.000      0.000      0.000 
      45      0.000      0.000      0.000      0.000 
      46      0.000      7.250      0.000      0.000 
      47     -0.190     -0.417      0.418      0.000 
      48      0.000      0.000      0.000      0.000 
      49      0.000      0.000      0.000      0.000 
      50      0.000      0.000      0.000      0.000 
      51      0.000      0.000      0.000      0.000 
      52      0.000      0.000      0.000      0.000 
      53      0.000      7.250      0.000      0.000 
      54      1.000      0.546      0.450      0.000 
      55      0.925     -0.576      0.677      0.000 
      56      0.000      7.250      0.000      0.000 
      57      0.000      7.250      0.000      0.000 
      58     -0.190     -0.417      0.418      0.000 
      59     -0.190     -0.417      0.418      0.000 
      60      0.000     10.000      0.000      0.000 
      61      0.000      4.900      0.000      0.000 
      62      0.000      7.250      0.000      0.000 
      63      0.000      0.000      0.000      0.000 
      64      0.000      0.000      0.000      0.000 
      65      0.000      2.100      0.000      0.000 
      66      0.000      0.000      0.000      0.000 
      67      0.000      4.900      0.000      0.000 
      68      0.000      5.500      0.000      0.000 
      69      0.000      0.000      0.000      0.000 
      70      0.000      0.000      0.000      0.000 
      71      0.000      0.000      0.000      0.000 
      72      0.000      5.000      0.000      0.000 
      73      0.000      7.250      0.000      0.000 
      74      0.000     10.750      0.000      0.000 
      75     -0.190     -0.417      0.418      0.000 
      76      0.000      7.250      0.000      0.000 
      77      0.000      0.000      0.000      0.000 
      78      0.000      0.000      0.000      0.000 
      79      0.000      7.250      0.000      0.000 
      80      0.000      7.250      0.000      0.000 
      81      0.000      7.250      0.000      0.000 
      82      0.000      7.250      0.000      0.000 
      83      0.000     10.000      0.000      0.000 
      84      0.000      0.000      0.000      0.000 
      85      0.000      0.000      0.000      0.000 
      86      0.000      7.250      0.000      0.000 
      87      0.000      7.250      0.000      0.000 
      88      2.392     -0.674      0.550      0.000 
      89      0.000      7.250      0.000      0.000 
      90      0.000      7.000      0.000      0.000 
      91      0.000      7.250      0.000      0.000 
      92      0.000      0.000      0.000      0.000 
      93      0.000      0.000      0.647      0.000 
      94      0.000      7.250      0.000      0.000 
      95      0.000      7.250      0.000      0.000 
      96      0.000      0.000      0.400      0.000 
      97      0.000      7.250      0.000      0.000 
      98      0.000      7.250      0.000      0.000 
      99      0.000      7.250      0.000      0.000 
     100      0.000      7.250      0.000      0.000 
     101      0.000      7.250      0.000      0.000 
     102      0.000      7.250      0.000      0.000 
     103      0.000      0.000      0.000      0.000 
     104      0.000      0.000      0.000      0.000 
     105      0.000      0.000      0.000      0.000 
     106      5.260      0.820      0.000      0.000 
     107      0.000      0.000      0.000      0.000 
     108      0.000      7.250      0.000      0.000 
     109      0.000      4.900      0.000      0.000 
     110      0.000      7.000      0.000      0.000 
     111      0.000      7.000      0.000      0.000 
     112      0.000      4.900      0.000      0.000 
     113      0.000      7.000      0.000      0.000 
     114      0.000      7.250      0.000      0.000 
     115      0.000      5.000      0.000      0.000 
     116      0.000      7.250      0.000      0.000 
     117      0.000     10.000      0.000      0.000 
     118      0.000      0.000      0.000      0.000 
     119      0.000      4.900      0.000      0.000 
     120      0.000      0.000      0.000      0.000 
     121      0.000      7.250      0.000      0.000 
     122      0.000      7.250      0.000      0.000 
     123      0.000      0.000      0.000      0.000 
     124      0.000      0.000      0.000      0.000 
     125      1.700     -0.600      0.000      0.000 
     126      0.000      7.000      0.000      0.000 
     127      0.000      0.000      0.000      0.000 
     128      0.000      7.250      0.000      0.000 
     129      5.260      0.820      0.000      0.000 
     130      0.000      0.000      0.000      0.000 
     131     -0.190     -0.417      0.418      0.000 
     132      0.000      7.000      0.000      0.000 
     133      0.000      0.000      0.400      0.000 
     134      0.000      0.000      0.400      0.000 
     135      0.000      7.250      0.000      0.000 

Improper Coeffs 

       1      0.000      -1       2 
       2      2.500      -1       2 
       3      0.000      -1       2 
       4     10.500      -1       2 
       5      2.500      -1       2 
       6     10.500      -1       2 
       7      2.500      -1       2 
       8     10.500      -1       2 
       9      2.500      -1       2 
      10      2.500      -1       2 
      11      0.000      -1       2 
      12      2.500      -1       2 
      13      2.500      -1       2 
      14      0.000      -1       2 
      15     10.500      -1       2 
      16      0.000      -1       2 
      17      0.000      -1       2 
      18      0.000      -1       2 
      19      0.000      -1       2 
      20      2.500      -1       2 
      21      2.500      -1       2 
      22      0.000      -1       2 
      23      0.000      -1       2 
      24      2.500      -1       2 
      25      0.000      -1       2 
      26      0.000      -1       2 
      27      0.000      -1       2 
      28      0.000      -1       2 
      29      2.500      -1       2 
      30      2.500      -1       2 

Atoms 

     1      1      1 -0.21260000    1.000  1.00000  0.00000
     2      1      2 -0.06540000   -0.516  1.00000  0.00000
     3      1      3 -0.04580000   -1.195  1.00000  1.25013
     4      1      4 0.09460000   -0.502  1.15968  2.60340
     5      1      5 -0.42560000    0.040 -0.00639  3.30917
     6      1      6 0.06310000    0.939  0.16263  4.34152
     7      1      7 -0.29440000    1.497 -0.96967  4.69090
     8      1      8 -0.07510000    0.809 -1.92492  4.00212
     9      1      9 -0.10180000   -0.204 -1.36143  3.23756
    10      1     10 0.13420000   -1.340 -2.00965  2.54417
    11      1     11 -0.91180000   -0.924 -2.49051  1.20937
    12      1     12 0.50760000   -1.927 -3.20816  3.34280
    13      1     13 -0.42590000   -2.040 -3.29507  4.55176
    14      1     14 -0.53710000   -2.391 -4.16179  2.48318
    15      1     15 -0.17570000   -2.605  1.00157  1.24693
    16      1     16 0.18960000   -3.366  1.00313  0.06220
    17      1     17 -0.05530000   -2.682  1.05890 -1.18031
    18      1     18 -0.14910000   -3.411  1.11832 -2.38694
    19      1     19 -0.05200000   -4.708  1.12290 -2.38001
    20      1     20 0.73630000   -5.453  1.18857 -3.68304
    21      1     21 -0.41060000   -4.883  1.28425 -4.75633
    22      1     22 -1.11610000   -6.805  1.13201 -3.53207
    23      1     23 0.55330000   -7.373  1.17210 -4.36671
    24      1     24 0.88090000   -7.477  1.07585 -2.34887
    25      1     25 -0.42080000   -8.703  1.03029 -2.38339
    26      1     26 -0.73850000   -6.790  1.07281 -1.16818
    27      1     27 0.54550000   -5.495  1.06589 -1.10269
    28      1     28 -0.46650000   -4.786  0.95225  0.08355
    29      1     29 -0.02010000   -5.475  0.69962  1.34522
    30      1     30 0.03090000   -1.262  1.09706 -1.23061
    31      1     31 -0.17310000   -0.298  1.19043 -2.80050
    32      1     32 0.12160000   -1.337  1.96781 -4.10011
    33      1     33 -0.83990000   -1.593  3.39081 -3.76030
    34      1     34 0.51880000   -0.615  1.95715 -5.48114
    35      1     35 -0.42280000    0.108  1.08176 -5.93035
    36      1     36 -0.52510000   -0.940  3.07437 -6.20423
    37      1     37 0.11570000    1.397  0.46985  0.87065
    38      1     38 0.11570000    1.369  2.03015  0.01419
    39      1     39 0.11570000    1.421  0.46995 -0.85794
    40      1     40 0.12330000   -1.178  1.64945  3.31666
    41      1     41 0.12330000    0.343  1.84910  2.47287
    42      1     42 0.22840000    1.145  1.12581  4.79258
    43      1     43 0.21380000    1.025 -2.97549  4.15717
    44      1     44 0.14880000   -2.183 -1.32472  2.44048
    45      1     45 0.35270000   -0.068 -3.04342  1.33166
    46      1     46 0.35270000   -0.611 -1.67879  0.67236
    47      1     47 0.47890000   -2.149 -3.86112  1.57167
    48      1     48 0.16170000   -3.107  1.00276  2.20956
    49      1     49 0.12540000   -6.561  0.63824  1.22582
    50      1     50 0.12540000   -5.285  1.50992  2.05698
    51      1     51 0.12540000   -5.155 -0.25597  1.77845
    52      1     52 0.22410000   -2.261  1.42389 -4.29242
    53      1     53 0.33710000   -0.678  3.79896 -3.55110
    54      1     54 0.33710000   -2.078  3.36742 -2.86237
    55      1     55 0.47930000   -1.528  3.62283 -5.62744

Bonds 

     1      1      2      1
     2      2      3      2
     3      3      4      3
     4      4      5      4
     5      5      6      5
     6      6      7      6
     7      7      8      7
     8      8      9      5
     9      9     10      9
    10     10     11     10
    11     11     12     10
    12     12     13     12
    13     13     14     12
    14     14     15      3
    15     15     16     15
    16     16     17     16
    17     17     18     17
    18     18     19     18
    19     19     20     19
    20     20     21     20
    21     21     22     20
    22     22     23     22
    23     23     24     22
    24     24     25     24
    25     25     26     24
    26     26     27     19
    27     27     28     16
    28     28     29     28
    29     29     30      2
    30     30     31     30
    31     31     32     31
    32     32     33     32
    33     33     34     32
    34     34     35     34
    35     35     36     34
    36     36     37      1
    37     37     38      1
    38     38     39      1
    39     39     40      4
    40     40     41      4
    41     41     42      6
    42     42     43      8
    43     43     44     10
    44     44     45     11
    45     45     46     11
    46     46     47     14
    47     47     48     15
    48     48     49     29
    49     49     50     29
    50     50     51     29
    51     51     52     32
    52     52     53     33
    53     53     54     33
    54     54     55     36
    55     55      9      8
    56     56     30     17
    57     57     27     26
    58     58     28     27

Angles 

     1      1      1      2      3
     2      2      2      3      4
     3      3      3      4      5
     4      4      4      5      6
     5      5      5      6      7
     6      6      6      7      8
     7      7      4      5      9
     8      8      5      9     10
     9      9      9     10     11
    10     10      9     10     12
    11     11     10     12     13
    12     12     10     12     14
    13     13      2      3     15
    14     14      3     15     16
    15     15     15     16     17
    16     16     16     17     18
    17     17     17     18     19
    18     18     18     19     20
    19     19     19     20     21
    20     20     19     20     22
    21     21     20     22     23
    22     22     20     22     24
    23     23     22     24     25
    24     24     22     24     26
    25     25     18     19     27
    26     26     15     16     28
    27     27     16     28     29
    28     28      1      2     30
    29     29      2     30     31
    30     30     30     31     32
    31     31     31     32     33
    32     32     31     32     34
    33     33     32     34     35
    34     34     32     34     36
    35     35      2      1     37
    36     36      2      1     38
    37     37      2      1     39
    38     38      3      4     40
    39     39      3      4     41
    40     40      5      6     42
    41     41      7      8     43
    42     42      9     10     44
    43     43     10     11     45
    44     44     10     11     46
    45     45     12     14     47
    46     46      3     15     48
    47     47     28     29     49
    48     48     28     29     50
    49     49     28     29     51
    50     50     31     32     52
    51     51     32     33     53
    52     52     32     33     54
    53     53     34     36     55
    54     54     16     17     30
    55     55     13     12     14
    56     56     11     10     12
    57     57     26     27     28
    58     58     53     33     54
    59     59     25     24     26
    60     60     33     32     34
    61     61     20     19     27
    62     62     23     22     24
    63     63      6      5      9
    64     64      9      8     43
    65     65     24     26     27
    66     66     18     17     30
    67     67     37      1     39
    68     68     16     28     27
    69     69     21     20     22
    70     70     33     32     52
    71     71     45     11     46
    72     72      5      4     41
    73     73     17     16     28
    74     74     19     27     26
    75     75     27     28     29
    76     76     50     29     51
    77     77     40      4     41
    78     78      5      4     40
    79     79      2     30     17
    80     80     49     29     51
    81     81     11     10     44
    82     82      3      2     30
    83     83     37      1     38
    84     84      8      9     10
    85     85      7      8      9
    86     86     38      1     39
    87     87     34     32     52
    88     88     12     10     44
    89     89     35     34     36
    90     90     16     15     48
    91     91     19     27     28
    92     92     17     30     31
    93     93     49     29     50
    94     94      7      6     42
    95     95      5      9      8
    96     96      4      3     15

Dihedrals

     1      1      4      3      2      1 
     2      2      5      4      3      2 
     3      3      6      5      4      3 
     4      4      7      6      5      4 
     5      5      8      7      6      5 
     6      6     11     10      9      5 
     7      7     13     12     10      9 
     8      8     16     15      3      2 
     9      9     17     16     15      3 
    10     10     18     17     16     15 
    11     11     19     18     17     16 
    12     12     20     19     18     17 
    13     13     21     20     19     18 
    14     14     23     22     20     19 
    15     15     25     24     22     20 
    16     16     32     31     30      2 
    17     17     33     32     31     30 
    18     18     35     34     32     31 
    19     19     37      1      2      3 
    20     20     45     11     10      9 
    21     21     47     14     12     10 
    22     22     49     29     28     16 
    23     23     53     33     32     31 
    24     24     55     36     34     32 
    25     25     10      9      5      4 
    26     26     15      3      4      5 
    27     27      8      9      5      6 
    28     28     32     31     30     17 
    29     29     36     34     32     31 
    30     30     26     27     28     16 
    31     31     47     14     12     13 
    32     32     41      4      5      6 
    33     33     31     30     17     16 
    34     34     29     28     16     17 
    35     35     26     24     22     20 
    36     36     10      9      8      7 
    37     37     53     33     32     52 
    38     38     31     30      2      1 
    39     39     48     15     16     17 
    40     40     40      4      3      2 
    41     41     44     10      9      5 
    42     42     27     26     24     22 
    43     43     31     30     17     18 
    44     44     44     10     12     14 
    45     45     52     32     34     35 
    46     46      9      8      7      6 
    47     47     54     33     32     34 
    48     48     13     12     10     11 
    49     49     44     10     12     13 
    50     50     49     29     28     27 
    51     51     19     27     28     16 
    52     52     52     32     34     36 
    53     53     48     15     16     28 
    54     54     14     12     10      9 
    55     55     34     32     31     30 
    56     56     48     15      3      2 
    57     57     15      3      2      1 
    58     58     45     11     10     12 
    59     59     46     11     10     12 
    60     60     42      6      5      9 
    61     61     23     22     20     21 
    62     62     17     30      2      1 
    63     63     40      4      5      9 
    64     64     38      1      2     30 
    65     65     54     33     32     31 
    66     66     39      1      2      3 
    67     67     25     24     22     23 
    68     68     55     36     34     35 
    69     69     35     34     32     33 
    70     70     37      1      2     30 
    71     71     50     29     28     27 
    72     72     10      9      5      6 
    73     73     27     19     18     17 
    74     74     43      8      9     10 
    75     75     46     11     10      9 
    76     76     30      2      3      4 
    77     77     41      4      5      9 
    78     78     38      1      2      3 
    79     79     28     16     17     18 
    80     80     30     17     16     28 
    81     81     26     27     19     18 
    82     82     16     15      3      4 
    83     83     42      6      7      8 
    84     84     29     28     27     19 
    85     85     41      4      3      2 
    86     86     29     28     27     26 
    87     87     43      8      9      5 
    88     88     11     10      9      8 
    89     89     48     15      3      4 
    90     90     16     17     30      2 
    91     91      7      8      9      5 
    92     92     40      4      5      6 
    93     93     52     32     31     30 
    94     94     43      8      7      6 
    95     95     29     28     16     15 
    96     96     45     11     10     44 
    97     97     26     27     19     20 
    98     98     27     28     16     17 
    99     99      9      5      6      7 
   100    100     30      2      3     15 
   101    101     24     26     27     19 
   102    102     31     30      2      3 
   103    103     51     29     28     16 
   104    104     51     29     28     27 
   105    105      9      5      4      3 
   106    106     36     34     32     33 
   107    107     41      4      3     15 
   108    108     28     27     26     24 
   109    109     26     24     22     23 
   110    110     27     19     20     22 
   111    111     18     17     30      2 
   112    112     27     26     24     25 
   113    113     22     20     19     18 
   114    114     28     27     19     18 
   115    115      8      9      5      4 
   116    116     30     17     18     19 
   117    117     42      6      5      4 